LAMMPS data file

3 atoms
2 atom types

-0.12 0.12 xlo xhi
-0.12 0.12 ylo yhi
-0.12 0.12 zlo zhi

Atoms # sphere(all in SI): label, type (specified above), diameter, density, x, y, z, angular velocity in x y z

1 2 0.0125 2700 0.032 0.0 0.0 0 0 0
2 1 0.05 7800 0.065 0.0 0.0 0 0 0
3 1 0.05 7800 0.0 0.0 0.0 0 0 0

Velocities

1 0  0 0 0 0 0
2 -2.441645 0 0 0 0 0
3 0  0 0 0 0 0